<?xml version="1.0" encoding="UTF-8"?>

<!-- generated on Tue Jun  7 04:34:35 2016 by SUMO Version 0.26.0
<?xml version="1.0" encoding="UTF-8"?>

<configuration xmlns:xsi="http://www.w3.org/2001/XMLSchema-instance" xsi:noNamespaceSchemaLocation="http://sumo.dlr.de/xsd/sumoConfiguration.xsd">

    <input>
        <net-file value="../VanderbiltCampus/Vanderbilt.net.xml"/>
        <route-files value="../VanderbiltCampus/morning.traffic.xml"/>
        <additional-files value="../VanderbiltCampus/detectors2.xml"/>
    </input>

    <output>
        <tripinfo-output value="tripinfo11111.xml"/>
    </output>

    <time>
        <begin value="0"/>
        <end value="7200"/>
        <step-length value="0.1"/>
    </time>

    <processing>
        <time-to-teleport value="7200"/>
    </processing>

    <traci_server>
        <remote-port value="11111"/>
    </traci_server>

</configuration>
-->

<tripinfos xmlns:xsi="http://www.w3.org/2001/XMLSchema-instance" xsi:noNamespaceSchemaLocation="http://sumo.dlr.de/xsd/tripinfo_file.xsd">
    <tripinfo id="flow16.0" depart="12.60" departLane="-19468772_0" departPos="3.10" departSpeed="0.00" departDelay="0.60" arrival="65.30" arrivalLane="-19455519#2_0" arrivalPos="99.05" arrivalSpeed="13.89" duration="52.70" routeLength="839.98" waitSteps="1" timeLoss="14.37" rerouteNo="0" devices="tripinfo_flow16.0" vType="Car" vaporized=""/>
    <tripinfo id="flow195.0" depart="53.00" departLane="239576148_0" departPos="3.10" departSpeed="0.00" departDelay="0.00" arrival="84.00" arrivalLane="239576140#4_0" arrivalPos="51.81" arrivalSpeed="11.50" duration="31.00" routeLength="227.01" waitSteps="1" timeLoss="17.09" rerouteNo="0" devices="tripinfo_flow195.0" vType="Car" vaporized=""/>
    <tripinfo id="flow167.0" depart="13.00" departLane="-19484078#1_0" departPos="3.10" departSpeed="0.00" departDelay="0.00" arrival="93.20" arrivalLane="-19456231#6_0" arrivalPos="113.34" arrivalSpeed="13.89" duration="80.20" routeLength="1031.65" waitSteps="1" timeLoss="34.31" rerouteNo="0" devices="tripinfo_flow167.0" vType="Car" vaporized=""/>
    <tripinfo id="flow125.0" depart="27.00" departLane="19479459#3_0" departPos="3.10" departSpeed="0.00" departDelay="0.00" arrival="93.30" arrivalLane="19468772_0" arrivalPos="212.04" arrivalSpeed="27.78" duration="66.30" routeLength="882.13" waitSteps="1" timeLoss="13.66" rerouteNo="0" devices="tripinfo_flow125.0" vType="Car" vaporized=""/>
    <tripinfo id="flow64.0" depart="15.30" departLane="120254976#0_0" departPos="3.10" departSpeed="0.00" departDelay="0.30" arrival="107.30" arrivalLane="-239576155#2_0" arrivalPos="41.72" arrivalSpeed="10.52" duration="92.00" routeLength="1321.88" waitSteps="1" timeLoss="27.87" rerouteNo="0" devices="tripinfo_flow64.0" vType="Car" vaporized=""/>
    <tripinfo id="flow182.0" depart="28.00" departLane="-19457616#10_0" departPos="3.10" departSpeed="0.00" departDelay="0.00" arrival="108.00" arrivalLane="-19451647#9_0" arrivalPos="168.98" arrivalSpeed="13.89" duration="80.00" routeLength="809.85" waitSteps="1" timeLoss="28.52" rerouteNo="0" devices="tripinfo_flow182.0" vType="Car" vaporized=""/>
    <tripinfo id="flow52.0" depart="60.20" departLane="120254976#0_0" departPos="3.10" departSpeed="0.00" departDelay="1.20" arrival="110.40" arrivalLane="-19454685#4_0" arrivalPos="24.97" arrivalSpeed="8.96" duration="50.20" routeLength="621.29" waitSteps="1" timeLoss="18.20" rerouteNo="0" devices="tripinfo_flow52.0" vType="Car" vaporized=""/>
    <tripinfo id="flow170.0" depart="1.00" departLane="-19458807_0" departPos="3.10" departSpeed="0.00" departDelay="0.00" arrival="111.50" arrivalLane="19452653#1_0" arrivalPos="42.47" arrivalSpeed="13.89" duration="110.50" routeLength="1676.76" waitSteps="1" timeLoss="38.54" rerouteNo="0" devices="tripinfo_flow170.0" vType="Car" vaporized=""/>
    <tripinfo id="flow52.1" depart="63.50" departLane="120254976#0_0" departPos="3.10" departSpeed="0.00" departDelay="3.50" arrival="113.90" arrivalLane="-19454685#4_0" arrivalPos="24.97" arrivalSpeed="8.90" duration="50.40" routeLength="621.29" waitSteps="1" timeLoss="18.48" rerouteNo="0" devices="tripinfo_flow52.1" vType="Car" vaporized=""/>
    <tripinfo id="flow195.1" depart="92.00" departLane="239576148_0" departPos="3.10" departSpeed="0.00" departDelay="0.00" arrival="123.00" arrivalLane="239576140#4_0" arrivalPos="51.81" arrivalSpeed="11.50" duration="31.00" routeLength="227.01" waitSteps="1" timeLoss="17.09" rerouteNo="0" devices="tripinfo_flow195.1" vType="Car" vaporized=""/>
    <tripinfo id="flow167.1" depart="54.00" departLane="-19484078#1_0" departPos="3.10" departSpeed="0.00" departDelay="0.00" arrival="134.20" arrivalLane="-19456231#6_0" arrivalPos="113.34" arrivalSpeed="13.89" duration="80.20" routeLength="1031.65" waitSteps="1" timeLoss="34.31" rerouteNo="0" devices="tripinfo_flow167.1" vType="Car" vaporized=""/>
    <tripinfo id="flow213.0" depart="31.00" departLane="-19453082#2_0" departPos="3.10" departSpeed="0.00" departDelay="0.00" arrival="134.90" arrivalLane="19451647#4_0" arrivalPos="163.08" arrivalSpeed="13.89" duration="103.90" routeLength="1218.06" waitSteps="1" timeLoss="20.49" rerouteNo="0" devices="tripinfo_flow213.0" vType="Car" vaporized=""/>
    <tripinfo id="flow151.0" depart="63.00" departLane="19485910#1_0" departPos="3.10" departSpeed="0.00" departDelay="0.00" arrival="137.90" arrivalLane="19456179#1_1" arrivalPos="163.86" arrivalSpeed="18.94" duration="74.90" routeLength="858.03" waitSteps="1" timeLoss="33.74" rerouteNo="0" devices="tripinfo_flow151.0" vType="Car" vaporized=""/>
    <tripinfo id="flow208.0" depart="74.00" departLane="-19485812#1_0" departPos="3.10" departSpeed="0.00" departDelay="0.00" arrival="138.80" arrivalLane="268942322_0" arrivalPos="253.14" arrivalSpeed="13.89" duration="64.80" routeLength="1029.68" waitSteps="1" timeLoss="18.23" rerouteNo="0" devices="tripinfo_flow208.0" vType="Car" vaporized=""/>
    <tripinfo id="flow159.0" depart="73.00" departLane="-60820954_0" departPos="3.10" departSpeed="0.00" departDelay="0.00" arrival="139.70" arrivalLane="-19445727_0" arrivalPos="42.13" arrivalSpeed="10.74" duration="66.70" routeLength="659.28" waitSteps="1" timeLoss="29.07" rerouteNo="0" devices="tripinfo_flow159.0" vType="Car" vaporized=""/>
    <tripinfo id="flow1.0" depart="9.30" departLane="-19468772_0" departPos="3.10" departSpeed="0.00" departDelay="0.30" arrival="143.60" arrivalLane="-19463160#2_0" arrivalPos="204.77" arrivalSpeed="20.70" duration="134.30" routeLength="1634.41" waitSteps="418" timeLoss="74.77" rerouteNo="0" devices="tripinfo_flow1.0" vType="Car" vaporized=""/>
    <tripinfo id="flow101.0" depart="2.00" departLane="19470377#0_0" departPos="3.10" departSpeed="0.00" departDelay="0.00" arrival="146.90" arrivalLane="19463160#4_0" arrivalPos="139.14" arrivalSpeed="27.78" duration="144.90" routeLength="1957.28" waitSteps="252" timeLoss="73.66" rerouteNo="0" devices="tripinfo_flow101.0" vType="Car" vaporized=""/>
    <tripinfo id="flow101.2" depart="29.00" departLane="19470377#0_0" departPos="3.10" departSpeed="0.00" departDelay="0.00" arrival="148.10" arrivalLane="19463160#4_0" arrivalPos="139.14" arrivalSpeed="27.78" duration="119.10" routeLength="1957.28" waitSteps="61" timeLoss="48.07" rerouteNo="0" devices="tripinfo_flow101.2" vType="Car" vaporized=""/>
    <tripinfo id="flow151.1" depart="79.00" departLane="19485910#1_0" departPos="3.10" departSpeed="0.00" departDelay="0.00" arrival="156.00" arrivalLane="19456179#1_1" arrivalPos="163.86" arrivalSpeed="18.92" duration="77.00" routeLength="858.03" waitSteps="1" timeLoss="35.84" rerouteNo="0" devices="tripinfo_flow151.1" vType="Car" vaporized=""/>
    <tripinfo id="flow101.1" depart="22.30" departLane="19470377#0_0" departPos="3.10" departSpeed="0.00" departDelay="2.30" arrival="156.50" arrivalLane="19463160#4_1" arrivalPos="139.14" arrivalSpeed="27.78" duration="134.20" routeLength="1957.28" waitSteps="1" timeLoss="63.05" rerouteNo="0" devices="tripinfo_flow101.1" vType="Car" vaporized=""/>
    <tripinfo id="flow17.0" depart="11.00" departLane="19470377#0_0" departPos="3.10" departSpeed="0.00" departDelay="0.00" arrival="164.20" arrivalLane="19462495_0" arrivalPos="188.74" arrivalSpeed="13.89" duration="153.20" routeLength="1831.02" waitSteps="172" timeLoss="72.49" rerouteNo="0" devices="tripinfo_flow17.0" vType="Car" vaporized=""/>
    <tripinfo id="flow219.0" depart="119.00" departLane="-19456179#2_0" departPos="3.10" departSpeed="0.00" departDelay="0.00" arrival="164.80" arrivalLane="19479459#1_0" arrivalPos="98.90" arrivalSpeed="13.89" duration="45.80" routeLength="551.43" waitSteps="1" timeLoss="12.52" rerouteNo="0" devices="tripinfo_flow219.0" vType="Car" vaporized=""/>
    <tripinfo id="flow149.0" depart="54.00" departLane="120254976#6_0" departPos="3.10" departSpeed="0.00" departDelay="0.00" arrival="169.10" arrivalLane="-120254976#0_1" arrivalPos="202.74" arrivalSpeed="27.78" duration="115.10" routeLength="722.89" waitSteps="496" timeLoss="88.12" rerouteNo="0" devices="tripinfo_flow149.0" vType="Car" vaporized=""/>
    <tripinfo id="flow172.0" depart="4.00" departLane="43073308#5_0" departPos="3.10" departSpeed="0.00" departDelay="0.00" arrival="172.80" arrivalLane="19481368#5_0" arrivalPos="101.71" arrivalSpeed="13.89" duration="168.80" routeLength="1680.01" waitSteps="390" timeLoss="93.86" rerouteNo="0" devices="tripinfo_flow172.0" vType="Car" vaporized=""/>
    <tripinfo id="flow167.2" depart="93.00" departLane="-19484078#1_0" departPos="3.10" departSpeed="0.00" departDelay="0.00" arrival="173.20" arrivalLane="-19456231#6_0" arrivalPos="113.34" arrivalSpeed="13.89" duration="80.20" routeLength="1031.65" waitSteps="1" timeLoss="34.31" rerouteNo="0" devices="tripinfo_flow167.2" vType="Car" vaporized=""/>
    <tripinfo id="flow3.0" depart="64.00" departLane="-245915229#14_0" departPos="3.10" departSpeed="0.00" departDelay="0.00" arrival="175.50" arrivalLane="19480794#0_0" arrivalPos="39.89" arrivalSpeed="11.02" duration="111.50" routeLength="2471.10" waitSteps="1" timeLoss="20.56" rerouteNo="0" devices="tripinfo_flow3.0" vType="Car" vaporized=""/>
    <tripinfo id="flow213.1" depart="77.00" departLane="-19453082#2_0" departPos="3.10" departSpeed="0.00" departDelay="0.00" arrival="180.90" arrivalLane="19451647#4_0" arrivalPos="163.08" arrivalSpeed="13.89" duration="103.90" routeLength="1218.06" waitSteps="1" timeLoss="20.49" rerouteNo="0" devices="tripinfo_flow213.1" vType="Car" vaporized=""/>
    <tripinfo id="flow151.2" depart="111.00" departLane="19485910#1_0" departPos="3.10" departSpeed="0.00" departDelay="0.00" arrival="185.90" arrivalLane="19456179#1_1" arrivalPos="163.86" arrivalSpeed="18.94" duration="74.90" routeLength="858.03" waitSteps="1" timeLoss="33.74" rerouteNo="0" devices="tripinfo_flow151.2" vType="Car" vaporized=""/>
    <tripinfo id="flow151.3" depart="119.00" departLane="19485910#1_0" departPos="3.10" departSpeed="0.00" departDelay="0.00" arrival="193.90" arrivalLane="19456179#1_1" arrivalPos="163.86" arrivalSpeed="18.94" duration="74.90" routeLength="858.03" waitSteps="1" timeLoss="33.74" rerouteNo="0" devices="tripinfo_flow151.3" vType="Car" vaporized=""/>
    <tripinfo id="flow195.2" depart="163.00" departLane="239576148_0" departPos="3.10" departSpeed="0.00" departDelay="0.00" arrival="194.00" arrivalLane="239576140#4_0" arrivalPos="51.81" arrivalSpeed="11.50" duration="31.00" routeLength="227.01" waitSteps="1" timeLoss="17.09" rerouteNo="0" devices="tripinfo_flow195.2" vType="Car" vaporized=""/>
    <tripinfo id="flow16.1" depart="135.60" departLane="-19468772_0" departPos="3.10" departSpeed="0.00" departDelay="4.60" arrival="197.40" arrivalLane="-19455519#2_0" arrivalPos="99.05" arrivalSpeed="13.89" duration="61.80" routeLength="839.98" waitSteps="1" timeLoss="23.39" rerouteNo="0" devices="tripinfo_flow16.1" vType="Car" vaporized=""/>
    <tripinfo id="flow188.0" depart="23.00" departLane="19481740#3_0" departPos="3.10" departSpeed="0.00" departDelay="0.00" arrival="203.20" arrivalLane="19469821#0_0" arrivalPos="57.11" arrivalSpeed="13.89" duration="180.20" routeLength="1994.56" waitSteps="200" timeLoss="74.56" rerouteNo="0" devices="tripinfo_flow188.0" vType="Car" vaporized=""/>
    <tripinfo id="flow213.2" depart="100.00" departLane="-19453082#2_0" departPos="3.10" departSpeed="0.00" departDelay="0.00" arrival="203.90" arrivalLane="19451647#4_0" arrivalPos="163.08" arrivalSpeed="13.89" duration="103.90" routeLength="1218.06" waitSteps="1" timeLoss="20.49" rerouteNo="0" devices="tripinfo_flow213.2" vType="Car" vaporized=""/>
    <tripinfo id="flow195.3" depart="177.00" departLane="239576148_0" departPos="3.10" departSpeed="0.00" departDelay="0.00" arrival="208.00" arrivalLane="239576140#4_0" arrivalPos="51.81" arrivalSpeed="11.50" duration="31.00" routeLength="227.01" waitSteps="1" timeLoss="17.09" rerouteNo="0" devices="tripinfo_flow195.3" vType="Car" vaporized=""/>
    <tripinfo id="flow167.3" depart="129.00" departLane="-19484078#1_0" departPos="3.10" departSpeed="0.00" departDelay="0.00" arrival="209.20" arrivalLane="-19456231#6_0" arrivalPos="113.34" arrivalSpeed="13.89" duration="80.20" routeLength="1031.65" waitSteps="1" timeLoss="34.31" rerouteNo="0" devices="tripinfo_flow167.3" vType="Car" vaporized=""/>
    <tripinfo id="flow20.0" depart="101.00" departLane="120254976#0_0" departPos="3.10" departSpeed="0.00" departDelay="0.00" arrival="210.60" arrivalLane="-19480564#0_0" arrivalPos="177.67" arrivalSpeed="13.89" duration="109.60" routeLength="1189.93" waitSteps="1" timeLoss="38.69" rerouteNo="0" devices="tripinfo_flow20.0" vType="Car" vaporized=""/>
    <tripinfo id="flow222.0" depart="14.00" departLane="-19449230_0" departPos="3.10" departSpeed="0.00" departDelay="0.00" arrival="215.20" arrivalLane="-19455519#3_0" arrivalPos="111.04" arrivalSpeed="13.89" duration="201.20" routeLength="3226.03" waitSteps="1" timeLoss="55.39" rerouteNo="0" devices="tripinfo_flow222.0" vType="Car" vaporized=""/>
    <tripinfo id="flow186.0" depart="103.00" departLane="232914116#2_0" departPos="3.10" departSpeed="0.00" departDelay="0.00" arrival="217.70" arrivalLane="119881990#3_0" arrivalPos="9.63" arrivalSpeed="13.22" duration="114.70" routeLength="1637.21" waitSteps="1" timeLoss="43.98" rerouteNo="0" devices="tripinfo_flow186.0" vType="Car" vaporized=""/>
    <tripinfo id="flow135.0" depart="31.00" departLane="19456021#1_0" departPos="3.05" departSpeed="0.00" departDelay="0.00" arrival="218.60" arrivalLane="-19470377#0_0" arrivalPos="41.78" arrivalSpeed="26.70" duration="187.60" routeLength="1678.03" waitSteps="471" timeLoss="120.87" rerouteNo="0" devices="tripinfo_flow135.0" vType="Car" vaporized=""/>
    <tripinfo id="flow148.1" depart="85.00" departLane="239584832#0_0" departPos="3.10" departSpeed="0.00" departDelay="0.00" arrival="218.60" arrivalLane="-19470377#0_2" arrivalPos="41.78" arrivalSpeed="26.70" duration="133.60" routeLength="1107.82" waitSteps="265" timeLoss="69.72" rerouteNo="0" devices="tripinfo_flow148.1" vType="Car" vaporized=""/>
    <tripinfo id="flow148.0" depart="16.00" departLane="239584832#0_0" departPos="3.10" departSpeed="0.00" departDelay="0.00" arrival="218.60" arrivalLane="-19470377#0_1" arrivalPos="41.78" arrivalSpeed="26.70" duration="202.60" routeLength="1107.82" waitSteps="955" timeLoss="138.03" rerouteNo="0" devices="tripinfo_flow148.0" vType="Car" vaporized=""/>
    <tripinfo id="flow0.0" depart="10.00" departLane="-245915229#14_0" departPos="3.10" departSpeed="0.00" departDelay="0.00" arrival="219.90" arrivalLane="-19485710#3_0" arrivalPos="218.85" arrivalSpeed="13.89" duration="209.90" routeLength="3985.81" waitSteps="1" timeLoss="20.98" rerouteNo="0" devices="tripinfo_flow0.0" vType="Car" vaporized=""/>
    <tripinfo id="flow76.0" depart="34.20" departLane="-245915229#14_0" departPos="3.10" departSpeed="0.00" departDelay="2.20" arrival="220.00" arrivalLane="-337393244#8_0" arrivalPos="140.70" arrivalSpeed="26.92" duration="185.80" routeLength="4673.87" waitSteps="1" timeLoss="17.27" rerouteNo="0" devices="tripinfo_flow76.0" vType="Car" vaporized=""/>
    <tripinfo id="flow178.0" depart="32.00" departLane="19479452#4_0" departPos="3.10" departSpeed="0.00" departDelay="0.00" arrival="220.10" arrivalLane="-19460631_0" arrivalPos="114.47" arrivalSpeed="13.89" duration="188.10" routeLength="1851.74" waitSteps="98" timeLoss="62.55" rerouteNo="0" devices="tripinfo_flow178.0" vType="Car" vaporized=""/>
    <tripinfo id="flow81.0" depart="53.60" departLane="120254976#0_0" departPos="3.10" departSpeed="0.00" departDelay="1.60" arrival="220.20" arrivalLane="-19482005_0" arrivalPos="315.39" arrivalSpeed="13.89" duration="166.60" routeLength="1398.84" waitSteps="472" timeLoss="80.85" rerouteNo="0" devices="tripinfo_flow81.0" vType="Car" vaporized=""/>
    <tripinfo id="flow81.1" depart="67.00" departLane="120254976#0_0" departPos="3.10" departSpeed="0.00" departDelay="0.00" arrival="222.70" arrivalLane="-19482005_0" arrivalPos="315.39" arrivalSpeed="13.89" duration="155.70" routeLength="1398.84" waitSteps="345" timeLoss="70.12" rerouteNo="0" devices="tripinfo_flow81.1" vType="Car" vaporized=""/>
    <tripinfo id="flow109.0" depart="43.30" departLane="120254976#0_0" departPos="3.10" departSpeed="0.00" departDelay="3.30" arrival="225.00" arrivalLane="-19482687#2_0" arrivalPos="111.10" arrivalSpeed="26.09" duration="181.70" routeLength="1885.17" waitSteps="536" timeLoss="109.05" rerouteNo="0" devices="tripinfo_flow109.0" vType="Car" vaporized=""/>
    <tripinfo id="flow216.0" depart="43.00" departLane="19469689#1_0" departPos="3.10" departSpeed="0.00" departDelay="0.00" arrival="226.10" arrivalLane="41139605#1_1" arrivalPos="162.37" arrivalSpeed="18.74" duration="183.10" routeLength="1974.17" waitSteps="264" timeLoss="100.86" rerouteNo="0" devices="tripinfo_flow216.0" vType="Car" vaporized=""/>
    <tripinfo id="flow55.0" depart="89.80" departLane="19479801#0_0" departPos="3.10" departSpeed="0.00" departDelay="0.80" arrival="226.20" arrivalLane="-19477338#0_0" arrivalPos="100.41" arrivalSpeed="13.89" duration="136.40" routeLength="3169.81" waitSteps="1" timeLoss="14.32" rerouteNo="0" devices="tripinfo_flow55.0" vType="Car" vaporized=""/>
    <tripinfo id="flow195.4" depart="196.00" departLane="239576148_0" departPos="3.10" departSpeed="0.00" departDelay="0.00" arrival="227.00" arrivalLane="239576140#4_0" arrivalPos="51.81" arrivalSpeed="11.50" duration="31.00" routeLength="227.01" waitSteps="1" timeLoss="17.09" rerouteNo="0" devices="tripinfo_flow195.4" vType="Car" vaporized=""/>
    <tripinfo id="flow88.0" depart="60.30" departLane="-19468772_0" departPos="3.10" departSpeed="0.00" departDelay="2.30" arrival="228.90" arrivalLane="19485912#2_0" arrivalPos="57.47" arrivalSpeed="13.89" duration="168.60" routeLength="1245.28" waitSteps="476" timeLoss="88.76" rerouteNo="0" devices="tripinfo_flow88.0" vType="Car" vaporized=""/>
    <tripinfo id="flow81.2" depart="117.90" departLane="120254976#0_0" departPos="3.10" departSpeed="0.00" departDelay="6.90" arrival="229.20" arrivalLane="-19482005_0" arrivalPos="315.39" arrivalSpeed="13.89" duration="111.30" routeLength="1398.84" waitSteps="1" timeLoss="26.03" rerouteNo="0" devices="tripinfo_flow81.2" vType="Car" vaporized=""/>
    <tripinfo id="flow64.1" depart="131.10" departLane="120254976#0_0" departPos="3.10" departSpeed="0.00" departDelay="13.10" arrival="230.00" arrivalLane="-239576155#2_0" arrivalPos="41.72" arrivalSpeed="10.52" duration="98.90" routeLength="1321.88" waitSteps="1" timeLoss="34.68" rerouteNo="0" devices="tripinfo_flow64.1" vType="Car" vaporized=""/>
    <tripinfo id="flow171.0" depart="50.00" departLane="-337393244#0_0" departPos="3.10" departSpeed="0.00" departDelay="0.00" arrival="231.50" arrivalLane="60820954_0" arrivalPos="75.51" arrivalSpeed="13.60" duration="181.50" routeLength="1422.00" waitSteps="630" timeLoss="122.92" rerouteNo="0" devices="tripinfo_flow171.0" vType="Car" vaporized=""/>
    <tripinfo id="flow59.0" depart="6.00" departLane="-19468772_0" departPos="3.10" departSpeed="0.00" departDelay="0.00" arrival="234.00" arrivalLane="19472023#0_0" arrivalPos="285.91" arrivalSpeed="13.89" duration="228.00" routeLength="2195.52" waitSteps="708" timeLoss="135.32" rerouteNo="0" devices="tripinfo_flow59.0" vType="Car" vaporized=""/>
    <tripinfo id="flow88.1" depart="125.00" departLane="-19468772_0" departPos="3.10" departSpeed="0.00" departDelay="0.00" arrival="234.30" arrivalLane="19485912#2_0" arrivalPos="57.47" arrivalSpeed="13.89" duration="109.30" routeLength="1245.28" waitSteps="1" timeLoss="29.98" rerouteNo="0" devices="tripinfo_flow88.1" vType="Car" vaporized=""/>
    <tripinfo id="flow64.2" depart="141.00" departLane="120254976#0_0" departPos="3.10" departSpeed="0.00" departDelay="11.00" arrival="234.60" arrivalLane="-239576155#2_0" arrivalPos="41.72" arrivalSpeed="10.60" duration="93.60" routeLength="1321.88" waitSteps="1" timeLoss="29.36" rerouteNo="0" devices="tripinfo_flow64.2" vType="Car" vaporized=""/>
    <tripinfo id="flow171.1" depart="126.00" departLane="-337393244#0_0" departPos="3.10" departSpeed="0.00" departDelay="0.00" arrival="234.70" arrivalLane="60820954_0" arrivalPos="75.51" arrivalSpeed="13.62" duration="108.70" routeLength="1422.00" waitSteps="1" timeLoss="50.73" rerouteNo="0" devices="tripinfo_flow171.1" vType="Car" vaporized=""/>
    <tripinfo id="flow195.5" depart="204.00" departLane="239576148_0" departPos="3.10" departSpeed="0.00" departDelay="0.00" arrival="235.00" arrivalLane="239576140#4_0" arrivalPos="51.81" arrivalSpeed="11.50" duration="31.00" routeLength="227.01" waitSteps="1" timeLoss="17.09" rerouteNo="0" devices="tripinfo_flow195.5" vType="Car" vaporized=""/>
    <tripinfo id="flow159.1" depart="107.00" departLane="-60820954_0" departPos="3.10" departSpeed="0.00" departDelay="0.00" arrival="235.30" arrivalLane="-19445727_0" arrivalPos="42.13" arrivalSpeed="10.74" duration="128.30" routeLength="659.28" waitSteps="510" timeLoss="90.12" rerouteNo="0" devices="tripinfo_flow159.1" vType="Car" vaporized=""/>
    <tripinfo id="flow81.3" depart="127.80" departLane="120254976#0_0" departPos="3.10" departSpeed="0.00" departDelay="12.80" arrival="239.80" arrivalLane="-19482005_0" arrivalPos="315.39" arrivalSpeed="13.89" duration="112.00" routeLength="1398.84" waitSteps="1" timeLoss="26.80" rerouteNo="0" devices="tripinfo_flow81.3" vType="Car" vaporized=""/>
    <tripinfo id="flow133.0" depart="10.00" departLane="-19485912#2_0" departPos="3.10" departSpeed="0.00" departDelay="0.00" arrival="240.40" arrivalLane="-120254976#0_2" arrivalPos="202.74" arrivalSpeed="27.78" duration="230.40" routeLength="2023.61" waitSteps="749" timeLoss="140.41" rerouteNo="0" devices="tripinfo_flow133.0" vType="Car" vaporized=""/>
    <tripinfo id="flow182.1" depart="163.00" departLane="-19457616#10_0" departPos="3.10" departSpeed="0.00" departDelay="0.00" arrival="243.00" arrivalLane="-19451647#9_0" arrivalPos="168.98" arrivalSpeed="13.89" duration="80.00" routeLength="809.85" waitSteps="1" timeLoss="28.52" rerouteNo="0" devices="tripinfo_flow182.1" vType="Car" vaporized=""/>
    <tripinfo id="flow153.0" depart="18.00" departLane="-19457066#1_0" departPos="3.10" departSpeed="0.00" departDelay="0.00" arrival="243.20" arrivalLane="226014645#1_0" arrivalPos="164.42" arrivalSpeed="13.89" duration="225.20" routeLength="727.88" waitSteps="1200" timeLoss="179.15" rerouteNo="0" devices="tripinfo_flow153.0" vType="Car" vaporized=""/>
    <tripinfo id="flow40.0" depart="15.90" departLane="-19468772_0" departPos="3.10" departSpeed="0.00" departDelay="3.90" arrival="245.70" arrivalLane="-19451595#0_0" arrivalPos="91.26" arrivalSpeed="13.89" duration="229.80" routeLength="2574.74" waitSteps="746" timeLoss="128.71" rerouteNo="0" devices="tripinfo_flow40.0" vType="Car" vaporized=""/>
    <tripinfo id="flow88.2" depart="132.30" departLane="-19468772_0" departPos="3.10" departSpeed="0.00" departDelay="2.30" arrival="246.90" arrivalLane="19485912#2_0" arrivalPos="57.47" arrivalSpeed="13.89" duration="114.60" routeLength="1245.28" waitSteps="1" timeLoss="35.22" rerouteNo="0" devices="tripinfo_flow88.2" vType="Car" vaporized=""/>
    <tripinfo id="flow166.0" depart="20.00" departLane="19454027#0_0" departPos="3.10" departSpeed="0.00" departDelay="0.00" arrival="247.00" arrivalLane="-19458185#1_0" arrivalPos="109.99" arrivalSpeed="13.89" duration="227.00" routeLength="1446.55" waitSteps="1014" timeLoss="154.87" rerouteNo="0" devices="tripinfo_flow166.0" vType="Car" vaporized=""/>
    <tripinfo id="flow124.0" depart="9.00" departLane="19479801#0_0" departPos="3.10" departSpeed="0.00" departDelay="0.00" arrival="247.50" arrivalLane="-19481746#3_0" arrivalPos="125.50" arrivalSpeed="13.89" duration="238.50" routeLength="5389.03" waitSteps="47" timeLoss="39.55" rerouteNo="0" devices="tripinfo_flow124.0" vType="Car" vaporized=""/>
    <tripinfo id="flow104.0" depart="21.90" departLane="120254976#0_0" departPos="3.10" departSpeed="0.00" departDelay="2.90" arrival="247.80" arrivalLane="19453082#0_0" arrivalPos="67.54" arrivalSpeed="13.89" duration="225.90" routeLength="1677.74" waitSteps="1000" timeLoss="161.40" rerouteNo="0" devices="tripinfo_flow104.0" vType="Car" vaporized=""/>
    <tripinfo id="flow52.2" depart="193.80" departLane="120254976#0_0" departPos="3.10" departSpeed="0.00" departDelay="9.80" arrival="248.30" arrivalLane="-19454685#4_0" arrivalPos="24.97" arrivalSpeed="8.98" duration="54.50" routeLength="621.29" waitSteps="1" timeLoss="22.46" rerouteNo="0" devices="tripinfo_flow52.2" vType="Car" vaporized=""/>
    <tripinfo id="flow208.1" depart="140.00" departLane="-19485812#1_0" departPos="3.10" departSpeed="0.00" departDelay="0.00" arrival="249.30" arrivalLane="268942322_0" arrivalPos="253.14" arrivalSpeed="13.89" duration="109.30" routeLength="1029.68" waitSteps="245" timeLoss="62.40" rerouteNo="0" devices="tripinfo_flow208.1" vType="Car" vaporized=""/>
    <tripinfo id="flow166.1" depart="90.00" departLane="19454027#0_0" departPos="3.10" departSpeed="0.00" departDelay="0.00" arrival="249.80" arrivalLane="-19458185#1_0" arrivalPos="109.99" arrivalSpeed="13.89" duration="159.80" routeLength="1446.55" waitSteps="321" timeLoss="88.31" rerouteNo="0" devices="tripinfo_flow166.1" vType="Car" vaporized=""/>
    <tripinfo id="flow56.0" depart="25.50" departLane="19479801#0_0" departPos="3.10" departSpeed="0.00" departDelay="6.50" arrival="254.30" arrivalLane="-19485346#4_0" arrivalPos="96.11" arrivalSpeed="13.89" duration="228.80" routeLength="4089.33" waitSteps="401" timeLoss="77.01" rerouteNo="0" devices="tripinfo_flow56.0" vType="Car" vaporized=""/>
    <tripinfo id="flow151.4" depart="173.00" departLane="19485910#1_0" departPos="3.10" departSpeed="0.00" departDelay="0.00" arrival="255.30" arrivalLane="19456179#1_1" arrivalPos="163.86" arrivalSpeed="18.28" duration="82.30" routeLength="858.03" waitSteps="4" timeLoss="41.12" rerouteNo="0" devices="tripinfo_flow151.4" vType="Car" vaporized=""/>
    <tripinfo id="flow167.4" depart="176.90" departLane="-19484078#1_0" departPos="3.10" departSpeed="0.00" departDelay="0.90" arrival="257.10" arrivalLane="-19456231#6_0" arrivalPos="113.34" arrivalSpeed="13.89" duration="80.20" routeLength="1031.65" waitSteps="1" timeLoss="34.31" rerouteNo="0" devices="tripinfo_flow167.4" vType="Car" vaporized=""/>
    <tripinfo id="flow213.3" depart="154.00" departLane="-19453082#2_0" departPos="3.10" departSpeed="0.00" departDelay="0.00" arrival="257.90" arrivalLane="19451647#4_0" arrivalPos="163.08" arrivalSpeed="13.89" duration="103.90" routeLength="1218.06" waitSteps="1" timeLoss="20.49" rerouteNo="0" devices="tripinfo_flow213.3" vType="Car" vaporized=""/>
    <tripinfo id="flow158.0" depart="70.00" departLane="19474043#2_0" departPos="3.10" departSpeed="0.00" departDelay="0.00" arrival="258.90" arrivalLane="-19454912#1_0" arrivalPos="173.79" arrivalSpeed="13.89" duration="188.90" routeLength="2435.88" waitSteps="371" timeLoss="91.87" rerouteNo="0" devices="tripinfo_flow158.0" vType="Car" vaporized=""/>
    <tripinfo id="flow35.0" depart="93.30" departLane="120254976#0_0" departPos="3.10" departSpeed="0.00" departDelay="3.30" arrival="261.90" arrivalLane="-19458191_0" arrivalPos="255.56" arrivalSpeed="13.89" duration="168.60" routeLength="1613.79" waitSteps="290" timeLoss="100.07" rerouteNo="0" devices="tripinfo_flow35.0" vType="Car" vaporized=""/>
    <tripinfo id="flow66.0" depart="57.00" departLane="-19468772_0" departPos="3.10" departSpeed="0.00" departDelay="8.00" arrival="263.50" arrivalLane="19485346#2_0" arrivalPos="174.64" arrivalSpeed="13.89" duration="206.50" routeLength="1352.62" waitSteps="443" timeLoss="146.19" rerouteNo="0" devices="tripinfo_flow66.0" vType="Car" vaporized=""/>
    <tripinfo id="flow35.1" depart="111.30" departLane="120254976#0_0" departPos="3.10" departSpeed="0.00" departDelay="2.30" arrival="264.50" arrivalLane="-19458191_0" arrivalPos="255.56" arrivalSpeed="13.89" duration="153.20" routeLength="1613.79" waitSteps="128" timeLoss="84.78" rerouteNo="0" devices="tripinfo_flow35.1" vType="Car" vaporized=""/>
    <tripinfo id="flow88.3" depart="155.90" departLane="-19468772_0" departPos="3.10" departSpeed="0.00" departDelay="3.90" arrival="265.20" arrivalLane="19485912#2_0" arrivalPos="57.47" arrivalSpeed="13.89" duration="109.30" routeLength="1245.28" waitSteps="1" timeLoss="29.98" rerouteNo="0" devices="tripinfo_flow88.3" vType="Car" vaporized=""/>
    <tripinfo id="flow66.1" depart="65.00" departLane="-19468772_0" departPos="3.10" departSpeed="0.00" departDelay="0.00" arrival="266.10" arrivalLane="19485346#2_0" arrivalPos="174.64" arrivalSpeed="13.89" duration="201.10" routeLength="1352.62" waitSteps="391" timeLoss="140.86" rerouteNo="0" devices="tripinfo_flow66.1" vType="Car" vaporized=""/>